                         Program Version 6.0.1  -  RELEASE   -
|  1> ! SP B3LYP D4 def2-TZVP TightSCF CHELPG
|  2>
|  3> %maxcore 5000
|  4>
|  5> %pal
|  6> nprocs 30
|  7> end
|  8>
|  9> * xyz -1 1
| 10>   S          -1.44853221739712     -1.01732808403032     -0.29049132149497
| 11>   S           1.34022967207696     -0.86175460472022      0.17961975841802
| 12>   F          -1.82007710667890      1.60092367346238     -0.64461426060240
| 13>   F          -3.30541826209407      0.63980812608893      0.61309770210974
| 14>   F          -1.32600619539836      1.05686147174676      1.39550341262314
| 15>   F           3.25702523223421      0.94372017619894      0.36128971858656
| 16>   F           2.34009527071026      0.86444682822527     -1.60274180226918
| 17>   F           1.29075251257461      1.80480090986882      0.04629560449167
| 18>   O          -1.65064135056383     -1.87275735283676      0.84864265096478
| 19>   O          -2.25234941840548     -1.21464814174666     -1.46737088874125
| 20>   O           2.29375052409145     -1.81558462442950     -0.32424201477343
| 21>   O           1.13711490778685     -0.76813327165957      1.60174373178120
| 22>   N           0.04940880788728     -0.81152334548387     -0.73306631525787
| 23>   C          -1.99508343835650      0.66865312460520      0.30539210232145
| 24>   C           2.08983106153263      0.78241511471059     -0.28895807815747
| 25> *
| 26>
| 27>                          ****END OF INPUT****

CARTESIAN COORDINATES (ANGSTROEM)
---------------------------------
  S     -1.448532   -1.017328   -0.290491
  S      1.340230   -0.861755    0.179620
  F     -1.820077    1.600924   -0.644614
  F     -3.305418    0.639808    0.613098
  F     -1.326006    1.056861    1.395503
  F      3.257025    0.943720    0.361290
  F      2.340095    0.864447   -1.602742
  F      1.290753    1.804801    0.046296
  O     -1.650641   -1.872757    0.848643
  O     -2.252349   -1.214648   -1.467371
  O      2.293751   -1.815585   -0.324242
  O      1.137115   -0.768133    1.601744
  N      0.049409   -0.811523   -0.733066
  C     -1.995083    0.668653    0.305392
  C      2.089831    0.782415   -0.288958

 Total Charge           Charge          ....   -1
 Multiplicity           Mult            ....    1
 Number of Electrons    NEL             ....  138
 Basis Dimension        Dim             ....  477

ORBITAL ENERGIES
----------------

  NO   OCC          E(Eh)            E(eV)
   0   2.0000     -88.931173     -2419.9402
   1   2.0000     -88.929427     -2419.8927
   2   2.0000     -24.609776      -669.6661
   3   2.0000     -24.609718      -669.6645
   4   2.0000     -24.609084      -669.6472
   5   2.0000     -24.606330      -669.5723
   6   2.0000     -24.605922      -669.5612
   7   2.0000     -24.605023      -669.5367
   8   2.0000     -18.992721      -516.8182
   9   2.0000     -18.991788      -516.7928
  10   2.0000     -18.990690      -516.7629
  11   2.0000     -18.989259      -516.7240
  12   2.0000     -14.187526      -386.0622
  13   2.0000     -10.314054      -280.6597
  14   2.0000     -10.310658      -280.5673
  15   2.0000      -7.975633      -217.0280
  16   2.0000      -7.973637      -216.9737
  17   2.0000      -5.939442      -161.6204
  18   2.0000      -5.938435      -161.5930
  19   2.0000      -5.937742      -161.5742
  20   2.0000      -5.936841      -161.5497
  21   2.0000      -5.936316      -161.5354
  22   2.0000      -5.934767      -161.4932
  23   2.0000      -1.211021       -32.9536
  24   2.0000      -1.207349       -32.8536
  25   2.0000      -1.123824       -30.5808
  26   2.0000      -1.122963       -30.5574
  27   2.0000      -1.120009       -30.4770
  28   2.0000      -1.119378       -30.4598
  29   2.0000      -1.001815       -27.2608
  30   2.0000      -0.985455       -26.8156
  31   2.0000      -0.883204       -24.0332
  32   2.0000      -0.880326       -23.9549
  33   2.0000      -0.788040       -21.4437
  34   2.0000      -0.634382       -17.2624
  35   2.0000      -0.614081       -16.7100
  36   2.0000      -0.567427       -15.4405
  37   2.0000      -0.517717       -14.0878
  38   2.0000      -0.493364       -13.4251
  39   2.0000      -0.490257       -13.3406
  40   2.0000      -0.487735       -13.2719
  41   2.0000      -0.486045       -13.2260
  42   2.0000      -0.476383       -12.9630
  43   2.0000      -0.402774       -10.9601
  44   2.0000      -0.378830       -10.3085
  45   2.0000      -0.370489       -10.0815
  46   2.0000      -0.367965       -10.0128
  47   2.0000      -0.365977        -9.9587
  48   2.0000      -0.362171        -9.8552
  49   2.0000      -0.344993        -9.3877
  50   2.0000      -0.344240        -9.3673
  51   2.0000      -0.334037        -9.0896
  52   2.0000      -0.332284        -9.0419
  53   2.0000      -0.330499        -8.9933
  54   2.0000      -0.326113        -8.8740
  55   2.0000      -0.325294        -8.8517
  56   2.0000      -0.319183        -8.6854
  57   2.0000      -0.310132        -8.4391
  58   2.0000      -0.305867        -8.3231
  59   2.0000      -0.269996        -7.3470
  60   2.0000      -0.232147        -6.3171
  61   2.0000      -0.225115        -6.1257
  62   2.0000      -0.209883        -5.7112
  63   2.0000      -0.202749        -5.5171
  64   2.0000      -0.196437        -5.3453
  65   2.0000      -0.193882        -5.2758
  66   2.0000      -0.182386        -4.9630
  67   2.0000      -0.161647        -4.3986
  68   2.0000      -0.149588        -4.0705
  69   0.0000       0.162764         4.4290
  70   0.0000       0.173051         4.7090
  71   0.0000       0.187330         5.0975
  72   0.0000       0.201322         5.4783
  73   0.0000       0.207741         5.6529

MULLIKEN ATOMIC CHARGES
-----------------------
   0 S :    0.767945
   1 S :    0.767947
   2 F :   -0.180266
   3 F :   -0.184322
   4 F :   -0.166597
   5 F :   -0.183087
   6 F :   -0.174479
   7 F :   -0.174896
   8 O :   -0.454653
   9 O :   -0.474877
  10 O :   -0.472737
  11 O :   -0.452572
  12 N :   -0.430380
  13 C :    0.402120
  14 C :    0.410855
Sum of atomic charges:   -1.0000000

LOEWDIN ATOMIC CHARGES
----------------------
   0 S :    0.545048
   1 S :    0.550802
   2 F :    0.177211
   3 F :    0.169689
   4 F :    0.192328
   5 F :    0.171081
   6 F :    0.182682
   7 F :    0.184112
   8 O :   -0.288941
   9 O :   -0.292030
  10 O :   -0.292472
  11 O :   -0.287442
  12 N :   -0.419821
  13 C :   -0.798980
  14 C :   -0.793267

  Mayer bond orders larger than 0.100000
B(  0-S ,  8-O ) :   1.8811 B(  0-S ,  9-O ) :   1.8831 B(  0-S , 12-N ) :   1.2714
B(  0-S , 13-C ) :   0.8300 B(  1-S , 10-O ) :   1.8753 B(  1-S , 11-O ) :   1.8622
B(  1-S , 12-N ) :   1.2530 B(  1-S , 14-C ) :   0.8370 B(  2-F , 13-C ) :   1.0985
B(  3-F , 13-C ) :   1.1036 B(  4-F , 13-C ) :   1.1174 B(  5-F , 14-C ) :   1.1058
B(  6-F , 14-C ) :   1.1189 B(  7-F , 14-C ) :   1.1106

Dispersion correction           -0.038962791
FINAL SINGLE POINT ENERGY     -1827.366345501466

DIPOLE MOMENT
-------------

Method             : SCF
Type of density    : Electron Density
Multiplicity       :   1
Irrep              :   0
Energy             : -1827.3273827107980196 Eh
Relativity type    :
Basis              : AO
                                X                 Y                 Z
Electronic contribution:      0.590416594       8.463512474       0.162850274
Nuclear contribution   :     -0.425834509      -6.706909520      -0.145094337
                        -----------------------------------------
Total Dipole Moment    :      0.164582085       1.756602954       0.017755937
                        -----------------------------------------
Magnitude (a.u.)       :      1.764385580
Magnitude (Debye)      :      4.484711737

Rotational constants in cm-1:             0.028514             0.012928             0.011320
Rotational constants in MHz :           854.829799           387.564403           339.363011

                             ****ORCA TERMINATED NORMALLY****
TOTAL RUN TIME: 0 days 0 hours 0 minutes 16 seconds 26 msec
