                         Program Version 6.0.1  -  RELEASE   -
|  1> ! Opt B3LYP D4 def2-TZVP TightSCF TightOpt
|  2>
|  3> %maxcore 5000
|  4>
|  5> %pal
|  6> nprocs 25
|  7> end
|  8>
|  9> * xyz 1 1
| 10> N         -0.26130        0.74560       -0.28840
| 11> N         -1.97150       -0.52670       -0.03670
| 12> C          1.00110        1.27760       -0.79210
| 13> C          2.21190        0.74040       -0.03220
| 14> C          2.33220       -0.78190       -0.11260
| 15> C         -0.84170       -0.36560       -0.73310
| 16> C         -1.01570        1.31090        0.70200
| 17> C         -2.10510        0.50240        0.86410
| 18> C          3.55450       -1.28290        0.64100
| 19> C         -2.90450       -1.61970       -0.21200
| 20> H          1.07670        1.02590       -1.85670
| 21> H          0.97110        2.37110       -0.72200
| 22> H          2.13940        1.04150        1.02000
| 23> H          3.11870        1.20370       -0.43860
| 24> H          1.44880       -1.26030        0.32240
| 25> H          2.39630       -1.09730       -1.16020
| 26> H         -0.47570       -1.01560       -1.51260
| 27> H         -0.67110        2.21730        1.16110
| 28> H         -2.96820        0.51290        1.50150
| 29> H          3.50110       -1.01170        1.70020
| 30> H          4.47340       -0.85930        0.22330
| 31> H          3.62160       -2.37310        0.57240
| 32> H         -2.53870       -2.30620       -0.98030
| 33> H         -3.00870       -2.16030        0.73270
| 34> H         -3.87440       -1.21920       -0.51920
| 35> *
| 36>
| 37>                          ****END OF INPUT****
 Total Charge           Charge          ....    1
 Multiplicity           Mult            ....    1
 Number of Electrons    NEL             ....   76
Dispersion correction           -0.034143057
FINAL SINGLE POINT ENERGY      -423.084744467468
Dispersion correction             ... done (  0.0 sec)
Dispersion correction           -0.033718192
FINAL SINGLE POINT ENERGY      -423.086999036260
Dispersion correction             ... done (  0.0 sec)
Dispersion correction           -0.033660094
FINAL SINGLE POINT ENERGY      -423.087770391856
Dispersion correction             ... done (  0.0 sec)
FINAL SINGLE POINT ENERGY      -423.087970707367
FINAL SINGLE POINT ENERGY      -423.088045799749
FINAL SINGLE POINT ENERGY      -423.088089262927
FINAL SINGLE POINT ENERGY      -423.088115968544
FINAL SINGLE POINT ENERGY      -423.088132719854
FINAL SINGLE POINT ENERGY      -423.088140155463
FINAL SINGLE POINT ENERGY      -423.088142370972
Dispersion correction             ... done (  0.0 sec)
Dispersion correction           -0.033759274
FINAL SINGLE POINT ENERGY      -423.088142761019
Dispersion correction             ... done (  0.0 sec)
Dispersion correction           -0.033759787
FINAL SINGLE POINT ENERGY      -423.088142852773
Dispersion correction             ... done (  0.0 sec)
                    ***********************HURRAY********************

CARTESIAN COORDINATES (ANGSTROEM)
---------------------------------
  N     -0.265728    0.679709   -0.364259
  N     -2.041124   -0.534113   -0.082971
  C      1.009545    1.186010   -0.907816
  C      2.208897    0.743144   -0.075889
  C      2.404010   -0.770596   -0.014363
  C     -0.988590   -0.315858   -0.872464
  C     -0.872561    1.110532    0.794251
  C     -1.985815    0.353078    0.969988
  C      3.655288   -1.165200    0.766884
  C     -3.084806   -1.538039   -0.300978
  H      1.082162    0.816384   -1.930600
  H      0.930273    2.272033   -0.949795
  H      2.126347    1.155038    0.934627
  H      3.088855    1.213901   -0.522672
  H      1.529361   -1.239589    0.449453
  H      2.467366   -1.167798   -1.033565
  H     -0.760331   -0.856553   -1.774354
  H     -0.470956    1.912928    1.386684
  H     -2.735863    0.373949    1.740555
  H      3.606953   -0.806003    1.797135
  H      4.553322   -0.745929    0.309053
  H      3.772302   -2.248713    0.797363
  H     -2.853275   -2.098867   -1.202573
  H     -3.118394   -2.216734    0.549093
  H     -4.047038   -1.043214   -0.418787

 Multiplicity           Mult            ....    1
 Number of Electrons    NEL             ....   76
 Basis Dimension        Dim             ....  400

ORBITAL ENERGIES
----------------

  NO   OCC          E(Eh)            E(eV)
   0   2.0000     -14.572180      -396.5292
   1   2.0000     -14.566785      -396.3824
   2   2.0000     -10.431811      -283.8640
   3   2.0000     -10.384327      -282.5719
   4   2.0000     -10.383373      -282.5460
   5   2.0000     -10.375364      -282.3280
   6   2.0000     -10.371616      -282.2260
   7   2.0000     -10.307247      -280.4744
   8   2.0000     -10.291033      -280.0332
   9   2.0000     -10.262949      -279.2690
  10   2.0000      -1.237658       -33.6784
  11   2.0000      -1.119329       -30.4585
  12   2.0000      -0.968981       -26.3673
  13   2.0000      -0.942222       -25.6392
  14   2.0000      -0.906985       -24.6803
  15   2.0000      -0.865819       -23.5601
  16   2.0000      -0.812735       -22.1156
  17   2.0000      -0.788235       -21.4490
  18   2.0000      -0.772167       -21.0117
  19   2.0000      -0.725047       -19.7295
  20   2.0000      -0.702922       -19.1275
  21   2.0000      -0.667088       -18.1524
  22   2.0000      -0.646084       -17.5808
  23   2.0000      -0.637485       -17.3468
  24   2.0000      -0.627269       -17.0689
  25   2.0000      -0.615634       -16.7522
  26   2.0000      -0.602549       -16.3962
  27   2.0000      -0.592361       -16.1190
  28   2.0000      -0.570105       -15.5133
  29   2.0000      -0.563189       -15.3251
  30   2.0000      -0.556059       -15.1311
  31   2.0000      -0.515343       -14.0232
  32   2.0000      -0.499380       -13.5888
  33   2.0000      -0.483922       -13.1682
  34   2.0000      -0.463046       -12.6001
  35   2.0000      -0.453425       -12.3383
  36   2.0000      -0.451836       -12.2951
  37   2.0000      -0.430720       -11.7205
  38   0.0000      -0.182230        -4.9587
  39   0.0000      -0.152281        -4.1438
  40   0.0000      -0.106313        -2.8929
  41   0.0000      -0.093402        -2.5416
  42   0.0000      -0.085899        -2.3374

MULLIKEN ATOMIC CHARGES
-----------------------
   0 N :   -0.002342
   1 N :   -0.030984
   2 C :   -0.172210
   3 C :   -0.185897
   4 C :   -0.187078
   5 C :    0.051842
   6 C :   -0.078911
   7 C :   -0.051608
   8 C :   -0.333553
   9 C :   -0.268514
  10 H :    0.155312
  11 H :    0.169172
  12 H :    0.117725
  13 H :    0.135429
  14 H :    0.089424
  15 H :    0.102075
  16 H :    0.213063
  17 H :    0.196100
  18 H :    0.198688
  19 H :    0.115578
  20 H :    0.124139
  21 H :    0.133864
  22 H :    0.156332
  23 H :    0.175742
  24 H :    0.176612
Sum of atomic charges:    1.0000000

LOEWDIN ATOMIC CHARGES
----------------------
   0 N :    0.288258
   1 N :    0.261881
   2 C :   -0.202105
   3 C :   -0.252669
   4 C :   -0.289719
   5 C :   -0.154606
   6 C :   -0.135800
   7 C :   -0.138022
   8 C :   -0.292884
   9 C :   -0.213299
  10 H :    0.149938
  11 H :    0.151476
  12 H :    0.142108
  13 H :    0.155200
  14 H :    0.129341
  15 H :    0.135717
  16 H :    0.159897
  17 H :    0.159246
  18 H :    0.158789
  19 H :    0.122614
  20 H :    0.124912
  21 H :    0.126369
  22 H :    0.137052
  23 H :    0.138035
  24 H :    0.138269

  Mayer bond orders larger than 0.100000
B(  0-N ,  2-C ) :   0.8431 B(  0-N ,  5-C ) :   1.3698 B(  0-N ,  6-C ) :   1.1604
B(  1-N ,  5-C ) :   1.3581 B(  1-N ,  7-C ) :   1.1582 B(  1-N ,  9-C ) :   0.8749
B(  2-C ,  3-C ) :   0.9491 B(  2-C , 10-H ) :   0.9662 B(  2-C , 11-H ) :   0.9662
B(  3-C ,  4-C ) :   0.9571 B(  3-C , 12-H ) :   0.9623 B(  3-C , 13-H ) :   0.9585
B(  4-C ,  8-C ) :   0.9880 B(  4-C , 14-H ) :   0.9557 B(  4-C , 15-H ) :   0.9610
B(  5-C , 16-H ) :   0.9272 B(  6-C ,  7-C ) :   1.6645 B(  6-C , 17-H ) :   0.9411
B(  7-C , 18-H ) :   0.9365 B(  8-C , 19-H ) :   0.9720 B(  8-C , 20-H ) :   0.9750
B(  8-C , 21-H ) :   0.9760 B(  9-C , 22-H ) :   0.9594 B(  9-C , 23-H ) :   0.9553
B(  9-C , 24-H ) :   0.9536

Dispersion correction           -0.033760001
FINAL SINGLE POINT ENERGY      -423.088142836513

DIPOLE MOMENT
-------------

Method             : SCF
Type of density    : Electron Density
Multiplicity       :   1
Irrep              :   0
Energy             :  -423.0543828359249687 Eh
Relativity type    :
Basis              : AO
                                X                 Y                 Z
Electronic contribution:     -9.720706640       3.611724736      -0.665788528
Nuclear contribution   :      8.074483604      -3.635973064       0.304354570
                        -----------------------------------------
Total Dipole Moment    :     -1.646223036      -0.024248328      -0.361433958
                        -----------------------------------------
Magnitude (a.u.)       :      1.685607538
Magnitude (Debye)      :      4.284473868

Rotational constants in cm-1:             0.082711             0.023150             0.021198
Rotational constants in MHz :          2479.625757           694.013094           635.507760

                             ****ORCA TERMINATED NORMALLY****
TOTAL RUN TIME: 0 days 0 hours 3 minutes 27 seconds 325 msec
