                         Program Version 6.0.1  -  RELEASE   -
|  1> ! SP B3LYP D4 def2-TZVP TightSCF CHELPG
|  2>
|  3> %maxcore 5000
|  4>
|  5> %pal
|  6> nprocs 25
|  7> end
|  8>
|  9> * xyz 1 1
| 10>   N          -0.26572770849193      0.67970910877257     -0.36425860888958
| 11>   N          -2.04112416820421     -0.53411325340545     -0.08297120741592
| 12>   C           1.00954535499503      1.18600973223017     -0.90781550103247
| 13>   C           2.20889737034269      0.74314365103849     -0.07588910143772
| 14>   C           2.40401001933167     -0.77059555518175     -0.01436258479172
| 15>   C          -0.98858990362213     -0.31585846403610     -0.87246382380874
| 16>   C          -0.87256083453730      1.11053212957130      0.79425077717869
| 17>   C          -1.98581475757162      0.35307840395743      0.96998776571752
| 18>   C           3.65528758669840     -1.16520018137782      0.76688416612810
| 19>   C          -3.08480586207706     -1.53803870271153     -0.30097821577978
| 20>   H           1.08216159517347      0.81638374171856     -1.93060010201834
| 21>   H           0.93027266841846      2.27203321776125     -0.94979533932893
| 22>   H           2.12634664354088      1.15503806851023      0.93462731722605
| 23>   H           3.08885508658608      1.21390113407278     -0.52267205636207
| 24>   H           1.52936112695012     -1.23958916947533      0.44945252756597
| 25>   H           2.46736560583226     -1.16779831057842     -1.03356469055113
| 26>   H          -0.76033118695115     -0.85655264359807     -1.77435352929898
| 27>   H          -0.47095613420514      1.91292828644706      1.38668351162618
| 28>   H          -2.73586287317457      0.37394930630594      1.74055486425884
| 29>   H           3.60695314671124     -0.80600314182057      1.79713522361825
| 30>   H           4.55332225305576     -0.74592917018953      0.30905259383044
| 31>   H           3.77230242733650     -2.24871256786395      0.79736315270233
| 32>   H          -2.85327545629083     -2.09886685911659     -1.20257263723669
| 33>   H          -3.11839442737193     -2.21673446005753      0.54909296824404
| 34>   H          -4.04703757247471     -1.04321430097314     -0.41878747014434
| 35> *
| 36>
| 37>                          ****END OF INPUT****

CARTESIAN COORDINATES (ANGSTROEM)
---------------------------------
  N     -0.265728    0.679709   -0.364259
  N     -2.041124   -0.534113   -0.082971
  C      1.009545    1.186010   -0.907816
  C      2.208897    0.743144   -0.075889
  C      2.404010   -0.770596   -0.014363
  C     -0.988590   -0.315858   -0.872464
  C     -0.872561    1.110532    0.794251
  C     -1.985815    0.353078    0.969988
  C      3.655288   -1.165200    0.766884
  C     -3.084806   -1.538039   -0.300978
  H      1.082162    0.816384   -1.930600
  H      0.930273    2.272033   -0.949795
  H      2.126347    1.155038    0.934627
  H      3.088855    1.213901   -0.522672
  H      1.529361   -1.239589    0.449453
  H      2.467366   -1.167798   -1.033565
  H     -0.760331   -0.856553   -1.774354
  H     -0.470956    1.912928    1.386684
  H     -2.735863    0.373949    1.740555
  H      3.606953   -0.806003    1.797135
  H      4.553322   -0.745929    0.309053
  H      3.772302   -2.248713    0.797363
  H     -2.853275   -2.098867   -1.202573
  H     -3.118394   -2.216734    0.549093
  H     -4.047038   -1.043214   -0.418787

 Total Charge           Charge          ....    1
 Multiplicity           Mult            ....    1
 Number of Electrons    NEL             ....   76
 Basis Dimension        Dim             ....  400

ORBITAL ENERGIES
----------------

  NO   OCC          E(Eh)            E(eV)
   0   2.0000     -14.572060      -396.5259
   1   2.0000     -14.567042      -396.3894
   2   2.0000     -10.431840      -283.8648
   3   2.0000     -10.384463      -282.5756
   4   2.0000     -10.383601      -282.5521
   5   2.0000     -10.375482      -282.3312
   6   2.0000     -10.371804      -282.2311
   7   2.0000     -10.307317      -280.4764
   8   2.0000     -10.291008      -280.0326
   9   2.0000     -10.263090      -279.2729
  10   2.0000      -1.237725       -33.6802
  11   2.0000      -1.119391       -30.4602
  12   2.0000      -0.969061       -26.3695
  13   2.0000      -0.942281       -25.6408
  14   2.0000      -0.907018       -24.6812
  15   2.0000      -0.865875       -23.5617
  16   2.0000      -0.812788       -22.1171
  17   2.0000      -0.788300       -21.4507
  18   2.0000      -0.772224       -21.0133
  19   2.0000      -0.725093       -19.7308
  20   2.0000      -0.702955       -19.1284
  21   2.0000      -0.667130       -18.1535
  22   2.0000      -0.646134       -17.5822
  23   2.0000      -0.637507       -17.3475
  24   2.0000      -0.627337       -17.0707
  25   2.0000      -0.615699       -16.7540
  26   2.0000      -0.602618       -16.3981
  27   2.0000      -0.592406       -16.1202
  28   2.0000      -0.570129       -15.5140
  29   2.0000      -0.563239       -15.3265
  30   2.0000      -0.556106       -15.1324
  31   2.0000      -0.515388       -14.0244
  32   2.0000      -0.499424       -13.5900
  33   2.0000      -0.483964       -13.1693
  34   2.0000      -0.463083       -12.6011
  35   2.0000      -0.453452       -12.3390
  36   2.0000      -0.451882       -12.2963
  37   2.0000      -0.430790       -11.7224
  38   0.0000      -0.182261        -4.9596
  39   0.0000      -0.152355        -4.1458
  40   0.0000      -0.106315        -2.8930
  41   0.0000      -0.093414        -2.5419
  42   0.0000      -0.085919        -2.3380

MULLIKEN ATOMIC CHARGES
-----------------------
   0 N :   -0.002424
   1 N :   -0.030984
   2 C :   -0.172206
   3 C :   -0.185893
   4 C :   -0.187044
   5 C :    0.051880
   6 C :   -0.078925
   7 C :   -0.051562
   8 C :   -0.333553
   9 C :   -0.268492
  10 H :    0.155314
  11 H :    0.169172
  12 H :    0.117721
  13 H :    0.135430
  14 H :    0.089410
  15 H :    0.102070
  16 H :    0.213052
  17 H :    0.196105
  18 H :    0.198685
  19 H :    0.115574
  20 H :    0.124138
  21 H :    0.133863
  22 H :    0.156325
  23 H :    0.175737
  24 H :    0.176608
Sum of atomic charges:    1.0000000

LOEWDIN ATOMIC CHARGES
----------------------
   0 N :    0.288187
   1 N :    0.261889
   2 C :   -0.202108
   3 C :   -0.252665
   4 C :   -0.289711
   5 C :   -0.154581
   6 C :   -0.135811
   7 C :   -0.137991
   8 C :   -0.292889
   9 C :   -0.213292
  10 H :    0.149941
  11 H :    0.151478
  12 H :    0.142107
  13 H :    0.155204
  14 H :    0.129338
  15 H :    0.135718
  16 H :    0.159893
  17 H :    0.159249
  18 H :    0.158790
  19 H :    0.122615
  20 H :    0.124914
  21 H :    0.126372
  22 H :    0.137051
  23 H :    0.138034
  24 H :    0.138268

  Mayer bond orders larger than 0.100000
B(  0-N ,  2-C ) :   0.8431 B(  0-N ,  5-C ) :   1.3698 B(  0-N ,  6-C ) :   1.1604
B(  1-N ,  5-C ) :   1.3582 B(  1-N ,  7-C ) :   1.1582 B(  1-N ,  9-C ) :   0.8749
B(  2-C ,  3-C ) :   0.9491 B(  2-C , 10-H ) :   0.9662 B(  2-C , 11-H ) :   0.9662
B(  3-C ,  4-C ) :   0.9571 B(  3-C , 12-H ) :   0.9623 B(  3-C , 13-H ) :   0.9585
B(  4-C ,  8-C ) :   0.9880 B(  4-C , 14-H ) :   0.9556 B(  4-C , 15-H ) :   0.9610
B(  5-C , 16-H ) :   0.9272 B(  6-C ,  7-C ) :   1.6645 B(  6-C , 17-H ) :   0.9411
B(  7-C , 18-H ) :   0.9365 B(  8-C , 19-H ) :   0.9720 B(  8-C , 20-H ) :   0.9750
B(  8-C , 21-H ) :   0.9760 B(  9-C , 22-H ) :   0.9595 B(  9-C , 23-H ) :   0.9553
B(  9-C , 24-H ) :   0.9536

Dispersion correction           -0.033760001
FINAL SINGLE POINT ENERGY      -423.088142745258

DIPOLE MOMENT
-------------

Method             : SCF
Type of density    : Electron Density
Multiplicity       :   1
Irrep              :   0
Energy             :  -423.0543827446695104 Eh
Relativity type    :
Basis              : AO
                                X                 Y                 Z
Electronic contribution:     -9.720801669       3.611638950      -0.665753105
Nuclear contribution   :      8.074483604      -3.635973064       0.304354570
                        -----------------------------------------
Total Dipole Moment    :     -1.646318065      -0.024334113      -0.361398535
                        -----------------------------------------
Magnitude (a.u.)       :      1.685693988
Magnitude (Debye)      :      4.284693607

Rotational constants in cm-1:             0.082711             0.023150             0.021198
Rotational constants in MHz :          2479.625757           694.013094           635.507760

                             ****ORCA TERMINATED NORMALLY****
TOTAL RUN TIME: 0 days 0 hours 0 minutes 14 seconds 83 msec
