                         Program Version 6.0.1  -  RELEASE   -
|  1> ! Opt B3LYP D4 def2-TZVP TightSCF TightOpt
|  2>
|  3> %maxcore 5000
|  4>
|  5> %pal
|  6> nprocs 15
|  7> end
|  8>
|  9> * xyz 0 1
| 10> S -0.698665 1.044227 3.828845
| 11> S 2.086868 1.224691 4.123532
| 12> F -0.877109 1.371070 6.438334
| 13> F -2.774269 1.476856 5.262198
| 14> F -1.873276 -0.506512 5.750120
| 15> F 3.135863 -1.048063 5.120325
| 16> F 4.172168 0.707829 5.864042
| 17> F 2.210061 0.150485 6.669961
| 18> O -1.430836 0.224832 2.860902
| 19> O -0.637353 2.487318 3.604502
| 20> O 1.995329 2.605344 4.618728
| 21> O 2.719374 0.999323 2.793665
| 22> N 0.712353 0.384622 4.021594
| 23> C -1.597233 0.776150 5.404317
| 24> C 2.917424 0.201857 5.496335
| 25> N 1.402676 -0.000000 -0.000000
| 26> N 0.617890 2.083006 0.014043
| 27> C 2.273868 -1.118182 -0.072762
| 28> C 3.254993 -1.039035 -1.289779
| 29> C 3.787903 -2.434323 -1.687621
| 30> C 1.767550 1.321767 0.000000
| 31> C 0.000000 0.000000 -0.000000
| 32> C -0.483433 1.322164 -0.097339
| 33> C 2.757301 -3.397852 -2.247686
| 34> C 0.448215 3.484169 0.199927
| 35> H 1.630384 -1.999055 -0.018084
| 36> H 2.808703 -1.127296 0.889771
| 37> H 2.791379 -0.529898 -2.128195
| 38> H 4.070291 -0.334736 -1.106336
| 39> H 4.319743 -2.716109 -0.780239
| 40> H 4.459761 -2.203680 -2.532612
| 41> H 2.699055 1.795162 0.252577
| 42> H -0.465895 -0.969844 0.104139
| 43> H -1.464843 1.776776 -0.001617
| 44> H 3.328709 -4.186866 -2.756656
| 45> H 2.168355 -4.003715 -1.548420
| 46> H 2.059920 -2.914668 -2.950532
| 47> H -0.052828 3.960363 -0.642211
| 48> H 1.431193 3.954174 0.314160
| 49> H -0.049049 3.636494 1.165549
| 50> *
| 51>
| 52>                          ****END OF INPUT****
 Total Charge           Charge          ....    0
 Multiplicity           Mult            ....    1
 Number of Electrons    NEL             ....  214
Dispersion correction           -0.081819423
FINAL SINGLE POINT ENERGY     -2250.509497339076
Dispersion correction             ... done (  0.0 sec)
Dispersion correction           -0.082574006
FINAL SINGLE POINT ENERGY     -2250.544086660012
Dispersion correction             ... done (  0.0 sec)
Dispersion correction           -0.083426262
FINAL SINGLE POINT ENERGY     -2250.561248236136
Dispersion correction             ... done (  0.0 sec)
FINAL SINGLE POINT ENERGY     -2250.570604206944
FINAL SINGLE POINT ENERGY     -2250.576310689356
FINAL SINGLE POINT ENERGY     -2250.579882124168
FINAL SINGLE POINT ENERGY     -2250.581544590074
FINAL SINGLE POINT ENERGY     -2250.582627066297
FINAL SINGLE POINT ENERGY     -2250.583416088038
FINAL SINGLE POINT ENERGY     -2250.583964229770
FINAL SINGLE POINT ENERGY     -2250.588705466135
FINAL SINGLE POINT ENERGY     -2250.588705561244
FINAL SINGLE POINT ENERGY     -2250.588705686145
FINAL SINGLE POINT ENERGY     -2250.588705788394
FINAL SINGLE POINT ENERGY     -2250.588705940194
FINAL SINGLE POINT ENERGY     -2250.588705988513
FINAL SINGLE POINT ENERGY     -2250.588706091282
Dispersion correction             ... done (  0.0 sec)
Dispersion correction           -0.092014885
FINAL SINGLE POINT ENERGY     -2250.588706167976
Dispersion correction             ... done (  0.0 sec)
Dispersion correction           -0.092014769
FINAL SINGLE POINT ENERGY     -2250.588706254207
Dispersion correction             ... done (  0.0 sec)
                    ***********************HURRAY********************

CARTESIAN COORDINATES (ANGSTROEM)
---------------------------------
  S     -0.217846    0.122037    2.945698
  S      2.327033    1.175914    3.642141
  F     -0.808903    0.715356    5.454027
  F     -2.350059   -0.384547    4.394375
  F     -0.562316   -1.408885    5.080297
  F      3.513128   -0.615673    5.188788
  F      3.832180    1.450984    5.771998
  F      1.925949    0.491944    6.168333
  O     -0.585010   -0.977012    2.089427
  O     -0.696121    1.439682    2.606278
  O      1.748598    2.475371    3.867416
  O      3.503565    1.105786    2.800072
  N      1.333000    0.018343    3.229560
  C     -1.031231   -0.265186    4.577769
  C      2.934878    0.580838    5.301002
  N      1.267642    0.583790   -0.090997
  N      0.714345    2.639665    0.298168
  C      2.003177   -0.685433   -0.021863
  C      2.506095   -1.136562   -1.387704
  C      3.300210   -2.444014   -1.311356
  C      1.673901    1.729859    0.447994
  C      0.005528    0.766825   -0.608516
  C     -0.342617    2.053610   -0.360538
  C      2.471468   -3.654147   -0.880981
  C      0.690944    3.935590    0.969897
  H      1.324524   -1.403491    0.434851
  H      2.824833   -0.529209    0.675906
  H      1.657771   -1.264098   -2.068241
  H      3.135359   -0.348358   -1.811079
  H      4.144610   -2.311432   -0.627387
  H      3.734178   -2.635108   -2.296203
  H      2.600728    1.865984    0.979985
  H     -0.548444   -0.035198   -1.058874
  H     -1.258112    2.581842   -0.551844
  H      3.070622   -4.565344   -0.916484
  H      2.093771   -3.554297    0.138015
  H      1.612660   -3.796385   -1.542443
  H      0.204078    4.664166    0.325238
  H      1.711800    4.247965    1.172272
  H      0.156626    3.827672    1.912480

 Multiplicity           Mult            ....    1
 Number of Electrons    NEL             ....  214
 Basis Dimension        Dim             ....  877

ORBITAL ENERGIES
----------------

  NO   OCC          E(Eh)            E(eV)
   0   2.0000     -89.053076     -2423.2574
   1   2.0000     -89.051530     -2423.2153
   2   2.0000     -24.717170      -672.5884
   3   2.0000     -24.716665      -672.5746
   4   2.0000     -24.716275      -672.5640
   5   2.0000     -24.714661      -672.5201
   6   2.0000     -24.714649      -672.5198
   7   2.0000     -24.714321      -672.5109
   8   2.0000     -19.117057      -520.2016
   9   2.0000     -19.116643      -520.1903
  10   2.0000     -19.115367      -520.1556
  11   2.0000     -19.113136      -520.0949
  12   2.0000     -14.436810      -392.8456
  13   2.0000     -14.434123      -392.7725
  14   2.0000     -14.310831      -389.4175
  15   2.0000     -10.428057      -283.7619
  16   2.0000     -10.425343      -283.6880
  17   2.0000     -10.292769      -280.0805
  18   2.0000     -10.254462      -279.0381
  19   2.0000     -10.253349      -279.0078
  20   2.0000     -10.244513      -278.7674
  21   2.0000     -10.239518      -278.6314
  22   2.0000     -10.198448      -277.5139
  23   2.0000     -10.187276      -277.2099
  24   2.0000     -10.171410      -276.7781
  25   2.0000      -8.098320      -220.3665
  26   2.0000      -8.096459      -220.3158
  27   2.0000      -6.061523      -164.9424
  28   2.0000      -6.061210      -164.9339
  29   2.0000      -6.060119      -164.9042
  30   2.0000      -6.059825      -164.8962
  31   2.0000      -6.059279      -164.8814
  32   2.0000      -6.057689      -164.8381
  33   2.0000      -1.320974       -35.9455
  34   2.0000      -1.318412       -35.8758
  35   2.0000      -1.233311       -33.5601
  36   2.0000      -1.232374       -33.5346
  37   2.0000      -1.230601       -33.4864
  38   2.0000      -1.230067       -33.4718
  39   2.0000      -1.126400       -30.6509
  40   2.0000      -1.109610       -30.1940
  41   2.0000      -1.105711       -30.0879
  42   2.0000      -1.007113       -27.4049
  43   2.0000      -1.003576       -27.3087
  44   2.0000      -0.988177       -26.8897
  45   2.0000      -0.910656       -24.7802
  46   2.0000      -0.843981       -22.9659
  47   2.0000      -0.819846       -22.3091
  48   2.0000      -0.786474       -21.4010
  49   2.0000      -0.751839       -20.4586
  50   2.0000      -0.744169       -20.2499
  51   2.0000      -0.727467       -19.7954
  52   2.0000      -0.693688       -18.8762
  53   2.0000      -0.681077       -18.5330
  54   2.0000      -0.668446       -18.1893
  55   2.0000      -0.646419       -17.5900
  56   2.0000      -0.634178       -17.2569
  57   2.0000      -0.605315       -16.4715
  58   2.0000      -0.605262       -16.4700
  59   2.0000      -0.599343       -16.3090
  60   2.0000      -0.597775       -16.2663
  61   2.0000      -0.595919       -16.2158
  62   2.0000      -0.590705       -16.0739
  63   2.0000      -0.586697       -15.9648
  64   2.0000      -0.536658       -14.6032
  65   2.0000      -0.525190       -14.2912
  66   2.0000      -0.517588       -14.0843
  67   2.0000      -0.509964       -13.8768
  68   2.0000      -0.502300       -13.6683
  69   2.0000      -0.500195       -13.6110
  70   2.0000      -0.494741       -13.4626
  71   2.0000      -0.482870       -13.1396
  72   2.0000      -0.479766       -13.0551
  73   2.0000      -0.475554       -12.9405
  74   2.0000      -0.473267       -12.8783
  75   2.0000      -0.470163       -12.7938
  76   2.0000      -0.468093       -12.7374
  77   2.0000      -0.463735       -12.6189
  78   2.0000      -0.457852       -12.4588
  79   2.0000      -0.449771       -12.2389
  80   2.0000      -0.448994       -12.2177
  81   2.0000      -0.444925       -12.1070
  82   2.0000      -0.442904       -12.0520
  83   2.0000      -0.441908       -12.0249
  84   2.0000      -0.438006       -11.9187
  85   2.0000      -0.435433       -11.8487
  86   2.0000      -0.431843       -11.7510
  87   2.0000      -0.430621       -11.7178
  88   2.0000      -0.418542       -11.3891
  89   2.0000      -0.415836       -11.3155
  90   2.0000      -0.413464       -11.2509
  91   2.0000      -0.396497       -10.7892
  92   2.0000      -0.394632       -10.7385
  93   2.0000      -0.366782        -9.9806
  94   2.0000      -0.361421        -9.8348
  95   2.0000      -0.359320        -9.7776
  96   2.0000      -0.354411        -9.6440
  97   2.0000      -0.348243        -9.4762
  98   2.0000      -0.332299        -9.0423
  99   2.0000      -0.329258        -8.9596
 100   2.0000      -0.325655        -8.8615
 101   2.0000      -0.320202        -8.7131
 102   2.0000      -0.311615        -8.4795
 103   2.0000      -0.306969        -8.3531
 104   2.0000      -0.294696        -8.0191
 105   2.0000      -0.289688        -7.8828
 106   2.0000      -0.272372        -7.4116
 107   0.0000      -0.050074        -1.3626
 108   0.0000      -0.022695        -0.6176
 109   0.0000       0.016748         0.4557
 110   0.0000       0.024026         0.6538
 111   0.0000       0.035162         0.9568

MULLIKEN ATOMIC CHARGES
-----------------------
   0 S :    0.816029
   1 S :    0.785988
   2 F :   -0.157866
   3 F :   -0.161003
   4 F :   -0.160253
   5 F :   -0.156910
   6 F :   -0.158214
   7 F :   -0.157433
   8 O :   -0.493451
   9 O :   -0.483777
  10 O :   -0.452961
  11 O :   -0.509804
  12 N :   -0.459607
  13 C :    0.449157
  14 C :    0.449851
  15 N :    0.025562
  16 N :   -0.015015
  17 C :   -0.246434
  18 C :   -0.135720
  19 C :   -0.142165
  20 C :   -0.033414
  21 C :   -0.083366
  22 C :   -0.033951
  23 C :   -0.364976
  24 C :   -0.265800
  25 H :    0.186352
  26 H :    0.163676
  27 H :    0.095786
  28 H :    0.103231
  29 H :    0.101901
  30 H :    0.100789
  31 H :    0.234129
  32 H :    0.163013
  33 H :    0.164854
  34 H :    0.119259
  35 H :    0.128879
  36 H :    0.101349
  37 H :    0.135726
  38 H :    0.145143
  39 H :    0.201447
Sum of atomic charges:    0.0000000

LOEWDIN ATOMIC CHARGES
----------------------
   0 S :    0.558127
   1 S :    0.555584
   2 F :    0.205150
   3 F :    0.198017
   4 F :    0.202482
   5 F :    0.204195
   6 F :    0.201176
   7 F :    0.206100
   8 O :   -0.281374
   9 O :   -0.276855
  10 O :   -0.276998
  11 O :   -0.301833
  12 N :   -0.417473
  13 C :   -0.806186
  14 C :   -0.804299
  15 N :    0.287547
  16 N :    0.261608
  17 C :   -0.213824
  18 C :   -0.259262
  19 C :   -0.282412
  20 C :   -0.169710
  21 C :   -0.153978
  22 C :   -0.157270
  23 C :   -0.304442
  24 C :   -0.230864
  25 H :    0.149023
  26 H :    0.153077
  27 H :    0.134763
  28 H :    0.137272
  29 H :    0.137203
  30 H :    0.136019
  31 H :    0.154585
  32 H :    0.150721
  33 H :    0.148449
  34 H :    0.121183
  35 H :    0.120752
  36 H :    0.117769
  37 H :    0.124109
  38 H :    0.132879
  39 H :    0.138992

  Mayer bond orders larger than 0.100000
B(  0-S ,  8-O ) :   1.8028 B(  0-S ,  9-O ) :   1.7765 B(  0-S , 12-N ) :   1.2413
B(  0-S , 13-C ) :   0.8481 B(  1-S , 10-O ) :   1.8441 B(  1-S , 11-O ) :   1.7379
B(  1-S , 12-N ) :   1.2507 B(  1-S , 14-C ) :   0.8381 B(  2-F , 13-C ) :   1.1343
B(  3-F , 13-C ) :   1.1377 B(  4-F , 13-C ) :   1.1320 B(  5-F , 14-C ) :   1.1433
B(  6-F , 14-C ) :   1.1401 B(  7-F , 14-C ) :   1.1315 B( 15-N , 17-C ) :   0.8613
B( 15-N , 20-C ) :   1.3518 B( 15-N , 21-C ) :   1.1586 B( 16-N , 20-C ) :   1.3568
B( 16-N , 22-C ) :   1.1602 B( 16-N , 24-C ) :   0.8849 B( 17-C , 18-C ) :   0.9210
B( 17-C , 25-H ) :   0.9589 B( 17-C , 26-H ) :   0.9506 B( 18-C , 19-C ) :   0.9680
B( 18-C , 27-H ) :   0.9752 B( 18-C , 28-H ) :   0.9624 B( 19-C , 23-C ) :   0.9593
B( 19-C , 29-H ) :   0.9693 B( 19-C , 30-H ) :   0.9699 B( 20-C , 31-H ) :   0.8994
B( 21-C , 22-C ) :   1.6645 B( 21-C , 32-H ) :   0.9528 B( 22-C , 33-H ) :   0.9436
B( 23-C , 34-H ) :   0.9737 B( 23-C , 35-H ) :   0.9770 B( 23-C , 36-H ) :   0.9718
B( 24-C , 37-H ) :   0.9556 B( 24-C , 38-H ) :   0.9645 B( 24-C , 39-H ) :   0.9450

Dispersion correction           -0.092014623
FINAL SINGLE POINT ENERGY     -2250.588706238806

DIPOLE MOMENT
-------------

Method             : SCF
Type of density    : Electron Density
Multiplicity       :   1
Irrep              :   0
Energy             : -2250.4966916153994134 Eh
Relativity type    :
Basis              : AO
                                X                 Y                 Z
Electronic contribution:     -9.890304108       7.438304804      53.664694681
Nuclear contribution   :      9.929301470      -6.576232334     -57.517196382
                        -----------------------------------------
Total Dipole Moment    :      0.038997362       0.862072470      -3.852501700
                        -----------------------------------------
Magnitude (a.u.)       :      3.947968983
Magnitude (Debye)      :     10.034939664

Rotational constants in cm-1:             0.007691             0.005003             0.004684
Rotational constants in MHz :           230.566033           149.985092           140.436016

                             ****ORCA TERMINATED NORMALLY****
TOTAL RUN TIME: 0 days 1 hours 10 minutes 19 seconds 342 msec
