                         Program Version 6.0.1  -  RELEASE   -
|  1> ! Opt B3LYP D4 def2-TZVP TightSCF TightOpt
|  2>
|  3> %maxcore 5000
|  4>
|  5> %pal
|  6> nprocs 30
|  7> end
|  8>
|  9> * xyz -1 1
| 10> S         -1.49180       -0.78220        0.00440
| 11> S          1.49200       -0.78230        0.00440
| 12> F         -2.54140        1.24590       -1.22250
| 13> F         -3.83500        0.28320        0.24670
| 14> F         -2.18450        1.54580        0.91030
| 15> F          3.83440        0.28390        0.25020
| 16> F          2.54400        1.24370       -1.22350
| 17> F          2.18230        1.54740        0.90790
| 18> O         -1.45900       -1.28340        1.36400
| 19> O         -1.86460       -1.63480       -1.10670
| 20> O          1.86460       -1.63500       -1.10660
| 21> O          1.45900       -1.28340        1.36400
| 22> N          0.00000       -0.00520       -0.35940
| 23> C         -2.55130        0.62810       -0.01650
| 24> C          2.55140        0.62820       -0.01660
| 25> *
| 26>
| 27>                          ****END OF INPUT****
 Total Charge           Charge          ....   -1
 Multiplicity           Mult            ....    1
 Number of Electrons    NEL             ....  138
Dispersion correction           -0.036778990
FINAL SINGLE POINT ENERGY     -1827.318640257133
Dispersion correction             ... done (  0.0 sec)
Dispersion correction           -0.037380470
FINAL SINGLE POINT ENERGY     -1827.348860316562
Dispersion correction             ... done (  0.0 sec)
Dispersion correction           -0.037836573
FINAL SINGLE POINT ENERGY     -1827.359294576027
Dispersion correction             ... done (  0.0 sec)
FINAL SINGLE POINT ENERGY     -1827.360516781508
FINAL SINGLE POINT ENERGY     -1827.361203244328
FINAL SINGLE POINT ENERGY     -1827.361492141416
FINAL SINGLE POINT ENERGY     -1827.362037970956
FINAL SINGLE POINT ENERGY     -1827.362527189365
FINAL SINGLE POINT ENERGY     -1827.363097374078
FINAL SINGLE POINT ENERGY     -1827.363599234936
FINAL SINGLE POINT ENERGY     -1827.364728735290
FINAL SINGLE POINT ENERGY     -1827.365000821466
FINAL SINGLE POINT ENERGY     -1827.365840853982
FINAL SINGLE POINT ENERGY     -1827.366125178270
FINAL SINGLE POINT ENERGY     -1827.366294752710
FINAL SINGLE POINT ENERGY     -1827.366338288996
FINAL SINGLE POINT ENERGY     -1827.366343342243
Dispersion correction             ... done (  0.0 sec)
Dispersion correction           -0.038969752
FINAL SINGLE POINT ENERGY     -1827.366345359863
Dispersion correction             ... done (  0.0 sec)
Dispersion correction           -0.038964057
FINAL SINGLE POINT ENERGY     -1827.366345545394
Dispersion correction             ... done (  0.0 sec)
                    ***********************HURRAY********************

CARTESIAN COORDINATES (ANGSTROEM)
---------------------------------
  S     -1.448532   -1.017328   -0.290491
  S      1.340230   -0.861755    0.179620
  F     -1.820077    1.600924   -0.644614
  F     -3.305418    0.639808    0.613098
  F     -1.326006    1.056861    1.395503
  F      3.257025    0.943720    0.361290
  F      2.340095    0.864447   -1.602742
  F      1.290753    1.804801    0.046296
  O     -1.650641   -1.872757    0.848643
  O     -2.252349   -1.214648   -1.467371
  O      2.293751   -1.815585   -0.324242
  O      1.137115   -0.768133    1.601744
  N      0.049409   -0.811523   -0.733066
  C     -1.995083    0.668653    0.305392
  C      2.089831    0.782415   -0.288958

 Multiplicity           Mult            ....    1
 Number of Electrons    NEL             ....  138
 Basis Dimension        Dim             ....  477

ORBITAL ENERGIES
----------------

  NO   OCC          E(Eh)            E(eV)
   0   2.0000     -88.931257     -2419.9425
   1   2.0000     -88.929472     -2419.8940
   2   2.0000     -24.609840      -669.6678
   3   2.0000     -24.609816      -669.6671
   4   2.0000     -24.609201      -669.6504
   5   2.0000     -24.606413      -669.5745
   6   2.0000     -24.606011      -669.5636
   7   2.0000     -24.605139      -669.5399
   8   2.0000     -18.992792      -516.8201
   9   2.0000     -18.991685      -516.7900
  10   2.0000     -18.990799      -516.7659
  11   2.0000     -18.989193      -516.7222
  12   2.0000     -14.187668      -386.0661
  13   2.0000     -10.314084      -280.6605
  14   2.0000     -10.310670      -280.5676
  15   2.0000      -7.975703      -217.0299
  16   2.0000      -7.973675      -216.9747
  17   2.0000      -5.939513      -161.6224
  18   2.0000      -5.938506      -161.5950
  19   2.0000      -5.937780      -161.5752
  20   2.0000      -5.936913      -161.5516
  21   2.0000      -5.936354      -161.5364
  22   2.0000      -5.934806      -161.4943
  23   2.0000      -1.211066       -32.9548
  24   2.0000      -1.207390       -32.8548
  25   2.0000      -1.123876       -30.5822
  26   2.0000      -1.123002       -30.5584
  27   2.0000      -1.120059       -30.4784
  28   2.0000      -1.119416       -30.4609
  29   2.0000      -1.001841       -27.2615
  30   2.0000      -0.985473       -26.8161
  31   2.0000      -0.883214       -24.0335
  32   2.0000      -0.880342       -23.9553
  33   2.0000      -0.788102       -21.4453
  34   2.0000      -0.634420       -17.2634
  35   2.0000      -0.614117       -16.7110
  36   2.0000      -0.567469       -15.4416
  37   2.0000      -0.517753       -14.0888
  38   2.0000      -0.493402       -13.4261
  39   2.0000      -0.490302       -13.3418
  40   2.0000      -0.487771       -13.2729
  41   2.0000      -0.486086       -13.2271
  42   2.0000      -0.476422       -12.9641
  43   2.0000      -0.402792       -10.9605
  44   2.0000      -0.378858       -10.3092
  45   2.0000      -0.370531       -10.0827
  46   2.0000      -0.368008       -10.0140
  47   2.0000      -0.366018        -9.9599
  48   2.0000      -0.362210        -9.8562
  49   2.0000      -0.345019        -9.3884
  50   2.0000      -0.344274        -9.3682
  51   2.0000      -0.334072        -9.0906
  52   2.0000      -0.332324        -9.0430
  53   2.0000      -0.330536        -8.9943
  54   2.0000      -0.326138        -8.8747
  55   2.0000      -0.325334        -8.8528
  56   2.0000      -0.319205        -8.6860
  57   2.0000      -0.310178        -8.4404
  58   2.0000      -0.305913        -8.3243
  59   2.0000      -0.270026        -7.3478
  60   2.0000      -0.232159        -6.3174
  61   2.0000      -0.225130        -6.1261
  62   2.0000      -0.209902        -5.7117
  63   2.0000      -0.202740        -5.5168
  64   2.0000      -0.196456        -5.3458
  65   2.0000      -0.193910        -5.2766
  66   2.0000      -0.182406        -4.9635
  67   2.0000      -0.161684        -4.3997
  68   2.0000      -0.149625        -4.0715
  69   0.0000       0.162735         4.4282
  70   0.0000       0.173018         4.7081
  71   0.0000       0.187300         5.0967
  72   0.0000       0.201291         5.4774
  73   0.0000       0.207710         5.6521

MULLIKEN ATOMIC CHARGES
-----------------------
   0 S :    0.767910
   1 S :    0.767865
   2 F :   -0.180263
   3 F :   -0.184330
   4 F :   -0.166601
   5 F :   -0.183085
   6 F :   -0.174484
   7 F :   -0.174893
   8 O :   -0.454646
   9 O :   -0.474819
  10 O :   -0.472664
  11 O :   -0.452532
  12 N :   -0.430430
  13 C :    0.402124
  14 C :    0.410847
Sum of atomic charges:   -1.0000000

LOEWDIN ATOMIC CHARGES
----------------------
   0 S :    0.545023
   1 S :    0.550745
   2 F :    0.177216
   3 F :    0.169682
   4 F :    0.192324
   5 F :    0.171084
   6 F :    0.182677
   7 F :    0.184114
   8 O :   -0.288936
   9 O :   -0.291980
  10 O :   -0.292413
  11 O :   -0.287411
  12 N :   -0.419870
  13 C :   -0.798979
  14 C :   -0.793277

  Mayer bond orders larger than 0.100000
B(  0-S ,  8-O ) :   1.8811 B(  0-S ,  9-O ) :   1.8832 B(  0-S , 12-N ) :   1.2714
B(  0-S , 13-C ) :   0.8300 B(  1-S , 10-O ) :   1.8753 B(  1-S , 11-O ) :   1.8622
B(  1-S , 12-N ) :   1.2530 B(  1-S , 14-C ) :   0.8370 B(  2-F , 13-C ) :   1.0985
B(  3-F , 13-C ) :   1.1036 B(  4-F , 13-C ) :   1.1174 B(  5-F , 14-C ) :   1.1058
B(  6-F , 14-C ) :   1.1189 B(  7-F , 14-C ) :   1.1106

Dispersion correction           -0.038962791
FINAL SINGLE POINT ENERGY     -1827.366345534392

DIPOLE MOMENT
-------------

Method             : SCF
Type of density    : Electron Density
Multiplicity       :   1
Irrep              :   0
Energy             : -1827.3273827437240016 Eh
Relativity type    :
Basis              : AO
                                X                 Y                 Z
Electronic contribution:      0.590422334       8.463389063       0.162841297
Nuclear contribution   :     -0.425834509      -6.706909520      -0.145094337
                        -----------------------------------------
Total Dipole Moment    :      0.164587825       1.756479543       0.017746959
                        -----------------------------------------
Magnitude (a.u.)       :      1.764263158
Magnitude (Debye)      :      4.484400566

Rotational constants in cm-1:             0.028514             0.012928             0.011320
Rotational constants in MHz :           854.829799           387.564403           339.363011

                             ****ORCA TERMINATED NORMALLY****
TOTAL RUN TIME: 0 days 0 hours 5 minutes 53 seconds 859 msec
