                         Program Version 6.0.1  -  RELEASE   -
|  1> ! Opt B3LYP D4 def2-TZVP TightSCF TightOpt
|  2>
|  3> %maxcore 5000
|  4>
|  5> %pal
|  6> nprocs 30
|  7> end
|  8>
|  9> * xyz 0 1
| 10> S           3.73207598427367      0.94642508541177      3.25512193222003
| 11>   S           1.01047434605466      1.69643167246516      3.48392745406833
| 12>   F           5.83050154876021      2.26862771239232      4.12668439733104
| 13>   F           3.95894275034168      3.33746399875074      4.38065623124884
| 14>   F           4.44547772214358      1.67871803009039      5.69190459526208
| 15>   F           1.37669439680240      2.69109600647900      5.90613024446874
| 16>   F          -0.65914999017677      2.81829589412701      5.16167125075670
| 17>   F           0.12581326641123      0.91865583670035      5.85924732847525
| 18>   O           3.83863369767986      1.59655972710447      1.96402844262214
| 19>   O           4.43531100552123     -0.28971558944696      3.44684746005778
| 20>   O          -0.06258136214075      0.93566434794703      2.88805635478706
| 21>   O           1.29630552056842      2.99229138018000      2.91114467785561
| 22>   N           2.25421367997275      0.77227073258178      3.77713840761969
| 23>   C           4.53890157046626      2.13807864988194      4.44299343511181
| 24>   C           0.43306996980339      2.04594358000002      5.21954318911049
| 25>   N           1.26715453057345      0.18694476924173      0.00109370146085
| 26>   N           0.23868849522113      2.09054827342548      0.00226434954221
| 27>   C           2.31976475736840     -0.82567337445527      0.18441248186557
| 28>   C           2.00073847617209     -1.79198920368411      1.31838779810677
| 29>   C           3.14494797567229     -2.77982330716833      1.54023150954569
| 30>   C           1.40936353094356      1.49284794695450      0.21656495574893
| 31>   C          -0.04117892611610     -0.05992507834224     -0.34700976697134
| 32>   C          -0.68599286249668      1.13275693852470     -0.34521278179138
| 33>   C           2.88694624949217     -3.69554481422613      2.73329260315291
| 34>   C          -0.04287889566700      3.50388416136418      0.22799473017963
| 35>   H           3.23880070619317     -0.28081857604636      0.39110208247691
| 36>   H           2.43888006811827     -1.35133327802983     -0.76526525022045
| 37>   H           1.81837415538168     -1.22391312801821      2.23104407680722
| 38>   H           1.07781478000738     -2.33704263495983      1.09412830971145
| 39>   H           4.06700740032904     -2.22031498777052      1.71362478042882
| 40>   H           3.29660090345799     -3.37843913211665      0.63464122319410
| 41>   H           2.31171585731850      1.96223200930492      0.57420008370228
| 42>   H          -0.40137723191142     -1.05038763007368     -0.55364948650394
| 43>   H          -1.71357308958637      1.37642610775156     -0.54336129732069
| 44>   H           1.96831885159783     -4.27376233459454      2.60148254013741
| 45>   H           3.70860750039271     -4.40030098755518      2.87149050435642
| 46>   H           2.79075003609551     -3.11045294545002      3.64957023559643
| 47>   H          -0.70354534377118      3.60475470037979      1.08605847899750
| 48>   H          -0.50180335346628      3.92757450028710     -0.66410183937186
| 49>   H           0.88777332219770      4.01455694059185      0.45212957617261
| 50> *
| 51>
| 52>                          ****END OF INPUT****
 Total Charge           Charge          ....    0
 Multiplicity           Mult            ....    1
 Number of Electrons    NEL             ....  214
Dispersion correction           -0.092480841
FINAL SINGLE POINT ENERGY     -2250.591694934882
Dispersion correction             ... done (  0.0 sec)
                    ***********************HURRAY********************

CARTESIAN COORDINATES (ANGSTROEM)
---------------------------------
  S      3.732119    0.946451    3.255068
  S      1.010469    1.696407    3.483927
  F      5.830554    2.268773    4.126437
  F      3.958942    3.337460    4.380625
  F      4.445752    1.678721    5.691789
  F      1.376286    2.691335    5.906068
  F     -0.659635    2.817580    5.161662
  F      0.126210    0.918338    5.859293
  O      3.838638    1.596557    1.963972
  O      4.435326   -0.289695    3.446771
  O     -0.062464    0.935565    2.887909
  O      1.296261    2.992304    2.911220
  N      2.254257    0.772285    3.777136
  C      4.538997    2.138126    4.442893
  C      0.432935    2.045733    5.219530
  N      1.267165    0.186985    0.001149
  N      0.238727    2.090577    0.002251
  C      2.319750   -0.825655    0.184448
  C      2.000718   -1.791949    1.318441
  C      3.144892   -2.779816    1.540285
  C      1.409382    1.492886    0.216555
  C     -0.041185   -0.059891   -0.346915
  C     -0.685979    1.132816   -0.345200
  C      2.886886   -3.695503    2.733363
  C     -0.042768    3.503929    0.227976
  H      3.238795   -0.280815    0.391110
  H      2.438800   -1.351332   -0.765230
  H      1.818383   -1.223846    2.231089
  H      1.077773   -2.336977    1.094186
  H      4.066965   -2.220321    1.713629
  H      3.296488   -3.378469    0.634710
  H      2.311747    1.962246    0.574181
  H     -0.401367   -1.050372   -0.553561
  H     -1.713553    1.376520   -0.543374
  H      1.968242   -4.273705    2.601585
  H      3.708547   -4.400259    2.871567
  H      2.790699   -3.110421    3.649651
  H     -0.703460    3.604844    1.086005
  H     -0.501617    3.927659   -0.664140
  H      0.887906    4.014541    0.452147

 Multiplicity           Mult            ....    1
 Number of Electrons    NEL             ....  214
 Basis Dimension        Dim             ....  877

ORBITAL ENERGIES
----------------

  NO   OCC          E(Eh)            E(eV)
   0   2.0000     -89.054580     -2423.2983
   1   2.0000     -89.052514     -2423.2421
   2   2.0000     -24.718823      -672.6334
   3   2.0000     -24.718237      -672.6174
   4   2.0000     -24.717687      -672.6025
   5   2.0000     -24.713794      -672.4965
   6   2.0000     -24.713699      -672.4939
   7   2.0000     -24.713462      -672.4875
   8   2.0000     -19.118910      -520.2520
   9   2.0000     -19.118889      -520.2514
  10   2.0000     -19.117321      -520.2087
  11   2.0000     -19.111416      -520.0481
  12   2.0000     -14.439446      -392.9173
  13   2.0000     -14.436035      -392.8245
  14   2.0000     -14.310975      -389.4214
  15   2.0000     -10.429199      -283.7929
  16   2.0000     -10.424914      -283.6763
  17   2.0000     -10.294097      -280.1166
  18   2.0000     -10.258992      -279.1614
  19   2.0000     -10.257913      -279.1320
  20   2.0000     -10.248537      -278.8769
  21   2.0000     -10.243301      -278.7344
  22   2.0000     -10.180412      -277.0231
  23   2.0000     -10.167686      -276.6768
  24   2.0000     -10.152323      -276.2587
  25   2.0000      -8.099813      -220.4071
  26   2.0000      -8.097375      -220.3408
  27   2.0000      -6.063034      -164.9835
  28   2.0000      -6.062749      -164.9758
  29   2.0000      -6.061272      -164.9356
  30   2.0000      -6.061016      -164.9286
  31   2.0000      -6.060189      -164.9061
  32   2.0000      -6.058648      -164.8642
  33   2.0000      -1.322182       -35.9784
  34   2.0000      -1.317730       -35.8573
  35   2.0000      -1.234385       -33.5893
  36   2.0000      -1.233874       -33.5754
  37   2.0000      -1.229769       -33.4637
  38   2.0000      -1.229427       -33.4544
  39   2.0000      -1.127540       -30.6819
  40   2.0000      -1.110701       -30.2237
  41   2.0000      -1.107465       -30.1356
  42   2.0000      -1.007764       -27.4227
  43   2.0000      -1.004742       -27.3404
  44   2.0000      -0.990140       -26.9431
  45   2.0000      -0.913147       -24.8480
  46   2.0000      -0.842287       -22.9198
  47   2.0000      -0.816374       -22.2147
  48   2.0000      -0.782950       -21.3052
  49   2.0000      -0.753654       -20.5080
  50   2.0000      -0.741625       -20.1806
  51   2.0000      -0.727004       -19.7828
  52   2.0000      -0.688098       -18.7241
  53   2.0000      -0.682371       -18.5683
  54   2.0000      -0.661885       -18.0108
  55   2.0000      -0.645164       -17.5558
  56   2.0000      -0.633419       -17.2362
  57   2.0000      -0.606241       -16.4966
  58   2.0000      -0.600181       -16.3318
  59   2.0000      -0.597759       -16.2658
  60   2.0000      -0.595563       -16.2061
  61   2.0000      -0.593328       -16.1453
  62   2.0000      -0.591354       -16.0916
  63   2.0000      -0.588126       -16.0037
  64   2.0000      -0.537532       -14.6270
  65   2.0000      -0.528912       -14.3924
  66   2.0000      -0.520005       -14.1501
  67   2.0000      -0.511474       -13.9179
  68   2.0000      -0.502319       -13.6688
  69   2.0000      -0.501162       -13.6373
  70   2.0000      -0.491305       -13.3691
  71   2.0000      -0.482775       -13.1370
  72   2.0000      -0.480526       -13.0758
  73   2.0000      -0.475648       -12.9430
  74   2.0000      -0.473905       -12.8956
  75   2.0000      -0.473223       -12.8770
  76   2.0000      -0.470412       -12.8006
  77   2.0000      -0.464104       -12.6289
  78   2.0000      -0.460460       -12.5298
  79   2.0000      -0.450199       -12.2505
  80   2.0000      -0.446553       -12.1513
  81   2.0000      -0.443656       -12.0725
  82   2.0000      -0.442122       -12.0308
  83   2.0000      -0.438769       -11.9395
  84   2.0000      -0.434991       -11.8367
  85   2.0000      -0.433863       -11.8060
  86   2.0000      -0.431915       -11.7530
  87   2.0000      -0.429338       -11.6829
  88   2.0000      -0.417586       -11.3631
  89   2.0000      -0.412689       -11.2298
  90   2.0000      -0.399269       -10.8647
  91   2.0000      -0.395351       -10.7580
  92   2.0000      -0.376027       -10.2322
  93   2.0000      -0.364374        -9.9151
  94   2.0000      -0.357319        -9.7232
  95   2.0000      -0.351636        -9.5685
  96   2.0000      -0.343333        -9.3426
  97   2.0000      -0.336500        -9.1566
  98   2.0000      -0.333137        -9.0651
  99   2.0000      -0.329435        -8.9644
 100   2.0000      -0.325781        -8.8650
 101   2.0000      -0.320474        -8.7206
 102   2.0000      -0.316205        -8.6044
 103   2.0000      -0.305770        -8.3204
 104   2.0000      -0.300190        -8.1686
 105   2.0000      -0.285411        -7.7664
 106   2.0000      -0.274296        -7.4640
 107   0.0000      -0.049305        -1.3416
 108   0.0000      -0.029170        -0.7937
 109   0.0000       0.017783         0.4839
 110   0.0000       0.023170         0.6305
 111   0.0000       0.038597         1.0503

MULLIKEN ATOMIC CHARGES
-----------------------
   0 S :    0.816541
   1 S :    0.809144
   2 F :   -0.159313
   3 F :   -0.157955
   4 F :   -0.158359
   5 F :   -0.156471
   6 F :   -0.165513
   7 F :   -0.153562
   8 O :   -0.521851
   9 O :   -0.462436
  10 O :   -0.496017
  11 O :   -0.492422
  12 N :   -0.451038
  13 C :    0.449667
  14 C :    0.446875
  15 N :    0.036447
  16 N :   -0.010599
  17 C :   -0.197627
  18 C :   -0.223374
  19 C :   -0.128401
  20 C :   -0.024688
  21 C :   -0.063435
  22 C :   -0.062014
  23 C :   -0.344554
  24 C :   -0.266238
  25 H :    0.172111
  26 H :    0.125516
  27 H :    0.168619
  28 H :    0.077622
  29 H :    0.121765
  30 H :    0.071455
  31 H :    0.262107
  32 H :    0.166024
  33 H :    0.163637
  34 H :    0.090289
  35 H :    0.109502
  36 H :    0.135211
  37 H :    0.167200
  38 H :    0.141525
  39 H :    0.164608
Sum of atomic charges:    0.0000000

LOEWDIN ATOMIC CHARGES
----------------------
   0 S :    0.563281
   1 S :    0.555454
   2 F :    0.199847
   3 F :    0.205073
   4 F :    0.204110
   5 F :    0.206482
   6 F :    0.192793
   7 F :    0.207891
   8 O :   -0.307156
   9 O :   -0.259488
  10 O :   -0.282517
  11 O :   -0.285506
  12 N :   -0.413739
  13 C :   -0.807196
  14 C :   -0.802234
  15 N :    0.288204
  16 N :    0.260992
  17 C :   -0.211579
  18 C :   -0.260509
  19 C :   -0.284749
  20 C :   -0.162530
  21 C :   -0.154375
  22 C :   -0.157975
  23 C :   -0.301916
  24 C :   -0.234850
  25 H :    0.150838
  26 H :    0.138864
  27 H :    0.147074
  28 H :    0.131354
  29 H :    0.139731
  30 H :    0.126572
  31 H :    0.158604
  32 H :    0.148587
  33 H :    0.147886
  34 H :    0.113399
  35 H :    0.118323
  36 H :    0.125923
  37 H :    0.134262
  38 H :    0.123282
  39 H :    0.137493

  Mayer bond orders larger than 0.100000
B(  0-S ,  8-O ) :   1.6975 B(  0-S ,  9-O ) :   1.8539 B(  0-S , 12-N ) :   1.2510
B(  0-S , 13-C ) :   0.8408 B(  1-S , 10-O ) :   1.7733 B(  1-S , 11-O ) :   1.7409
B(  1-S , 12-N ) :   1.2734 B(  1-S , 14-C ) :   0.8477 B(  2-F , 13-C ) :   1.1379
B(  3-F , 13-C ) :   1.1328 B(  4-F , 13-C ) :   1.1330 B(  5-F , 14-C ) :   1.1367
B(  6-F , 14-C ) :   1.1289 B(  7-F , 14-C ) :   1.1499 B( 15-N , 17-C ) :   0.8691
B( 15-N , 20-C ) :   1.3647 B( 15-N , 21-C ) :   1.1610 B( 16-N , 20-C ) :   1.3607
B( 16-N , 22-C ) :   1.1598 B( 16-N , 24-C ) :   0.8854 B( 17-C , 18-C ) :   0.9356
B( 17-C , 25-H ) :   0.9522 B( 17-C , 26-H ) :   0.9631 B( 18-C , 19-C ) :   0.9661
B( 18-C , 27-H ) :   0.9591 B( 18-C , 28-H ) :   0.9687 B( 19-C , 23-C ) :   0.9667
B( 19-C , 29-H ) :   0.9545 B( 19-C , 30-H ) :   0.9615 B( 20-C , 31-H ) :   0.8863
B( 21-C , 22-C ) :   1.6774 B( 21-C , 32-H ) :   0.9488 B( 22-C , 33-H ) :   0.9480
B( 23-C , 34-H ) :   0.9744 B( 23-C , 35-H ) :   0.9782 B( 23-C , 36-H ) :   0.9782
B( 24-C , 37-H ) :   0.9599 B( 24-C , 38-H ) :   0.9513 B( 24-C , 39-H ) :   0.9654

Dispersion correction           -0.092481131
FINAL SINGLE POINT ENERGY     -2250.591695046225

DIPOLE MOMENT
-------------

Method             : SCF
Type of density    : Electron Density
Multiplicity       :   1
Irrep              :   0
Energy             : -2250.4992139152805066 Eh
Relativity type    :
Basis              : AO
                                X                 Y                 Z
Electronic contribution:      6.551661107      30.425760249      36.331939833
Nuclear contribution   :     -8.648782088     -30.588009760     -40.153351054
                        -----------------------------------------
Total Dipole Moment    :     -2.097120981      -0.162249511      -3.821411221
                        -----------------------------------------
Magnitude (a.u.)       :      4.362043677
Magnitude (Debye)      :     11.087433893

Rotational constants in cm-1:             0.007373             0.005963             0.004669
Rotational constants in MHz :           221.049938           178.759078           139.973750

                             ****ORCA TERMINATED NORMALLY****
TOTAL RUN TIME: 0 days 0 hours 1 minutes 24 seconds 347 msec
